# vtk DataFile Version 5.1
vtk output
ASCII
DATASET POLYDATA
POINTS 1158 float
-14.1677 -13.3046 8.70799 -13.7638 -12.6514 9.0164 -13.3333 -13.1955 8.90844 
-15.2553 -13.1483 8.6441 -14.597 -12.4645 8.94048 -16.3001 -13.1401 8.61678 
-15.583 -12.3942 8.87207 -17.2937 -13.2112 8.6307 -16.5816 -12.4181 8.86342 
-18.1443 -13.3235 8.69389 -17.5694 -12.5679 8.90094 -18.3478 -12.8585 8.93833 
-13.3892 -14.0225 8.70953 -12.7637 -13.5714 9.01845 -12.5314 -14.3766 8.94619 
-14.2659 -14.1814 8.51871 -15.0783 -14.0271 8.48186 -16.1085 -14.0008 8.45985 
-17.1353 -14.0316 8.47348 -18.0554 -14.0577 8.5444 -18.7479 -13.4098 8.8279 
-18.7875 -14.0214 8.69644 -19.2728 -13.855 8.9448 -13.1843 -15.078 8.64787 
-12.4161 -15.3522 8.88358 -14.0709 -14.9725 8.48172 -15.0179 -14.9707 8.39893 
-16.024 -14.974 8.37883 -17.0572 -14.9955 8.39774 -18.0192 -14.9824 8.47288 
-18.8409 -14.8846 8.63057 -19.5063 -14.6546 8.90589 -13.1362 -16.1159 8.62391 
-12.391 -16.3596 8.88416 -14.005 -15.9895 8.45915 -14.9781 -15.9728 8.37685 
-16.0035 -16.0021 8.35542 -17.0283 -16.0285 8.37902 -17.9977 -16.0058 8.45691 
-18.8565 -15.8794 8.60906 -19.5863 -15.6495 8.85542 -13.1546 -17.1255 8.64557 
-12.4744 -17.3709 8.93402 -13.9848 -17.0176 8.47474 -14.9488 -17.0044 8.39453 
-15.9812 -17.0286 8.37675 -16.986 -17.0307 8.39825 -17.927 -17.0208 8.47458 
-18.8004 -16.9069 8.62568 -19.5522 -16.6387 8.84685 -13.2079 -18.009 8.72018 
-12.7118 -18.1875 8.97827 -13.947 -17.9543 8.55325 -14.8676 -17.9706 8.47274 
-15.8913 -17.9986 8.45526 -16.9175 -17.9695 8.47423 -17.7264 -17.8104 8.50662 
-18.5824 -17.9535 8.67553 -19.4237 -17.6012 8.9004 -13.2465 -18.6395 8.86149 
-13.65 -19.1921 8.96866 -13.8556 -18.71 8.7162 -14.7055 -18.8031 8.63873 
-15.6931 -18.8605 8.61351 -16.7298 -18.8419 8.63044 -17.8059 -18.6731 8.67909 
-18.6174 -18.7651 8.85722 -19.18 -18.394 8.96431 -14.4295 -19.4655 8.91822 
-15.4099 -19.5929 8.86673 -16.3978 -19.5968 8.86175 -17.3748 -19.5087 8.91587 
-18.1934 -19.3081 8.97413 -15.242 -11.1881 9.58705 -15.1626 -10.664 9.97545 
-14.5278 -10.9244 9.94216 -16.3289 -11.1142 9.60846 -15.8169 -10.56 10.027 
-17.3076 -11.2225 9.67567 -16.9252 -10.4701 10.2132 -17.6755 -10.8237 10.0891 
-13.0422 -12.0024 9.71008 -13.0319 -11.5865 10.0108 -12.5417 -11.959 10.0398 
-14.0616 -11.8477 9.42155 -13.6087 -11.3199 9.96107 -15.0474 -11.864 9.1732 
-15.9255 -11.7381 9.18723 -16.9498 -11.8049 9.22324 -18.0519 -11.2686 9.87847 
-18.1714 -12.0483 9.40458 -19.3075 -12.3145 9.77034 -18.965 -11.4537 10.2162 
-19.6722 -11.89 10.2789 -12.3046 -12.6674 9.72399 -12.0562 -12.4319 10.0412 
-11.5842 -13.1124 10.0342 -12.9728 -12.7735 9.28283 -19.1239 -13.0873 9.2149 
-20.1429 -12.3672 10.288 -19.9647 -13.0758 9.74289 -20.5599 -12.9664 10.2417 
-12.0016 -13.7627 9.42055 -11.2339 -14.0789 9.82971 -20.1103 -14.1297 9.41343 
-20.651 -13.586 9.98987 -11.2932 -14.8588 9.57446 -10.9029 -14.5594 9.91907 
-10.6185 -15.1819 10.0508 -11.9237 -14.777 9.18077 -20.2406 -15.3464 9.22539 
-21.1064 -14.2808 10.0782 -20.9174 -15.1179 9.70307 -21.4843 -15.0223 10.1518 
-11.1064 -15.9247 9.5989 -10.5445 -16.2374 10.0234 -11.7468 -15.6476 9.20105 
-20.2124 -16.3708 9.16704 -20.8816 -16.1154 9.60578 -21.4933 -15.7859 10.0723 
-11.0613 -16.8606 9.69139 -10.5955 -16.8566 10.0255 -11.7267 -16.6747 9.2515 
-20.0234 -17.2242 9.13723 -20.6753 -17.2099 9.58217 -21.5123 -16.8929 10.2004 
-10.816 -17.5144 10.0612 -11.3306 -18.3761 9.97379 -11.8565 -17.8724 9.43252 
-19.9528 -18.2502 9.40343 -20.7167 -18.0698 9.8665 -21.1482 -17.6708 10.0681 
-12.0296 -18.8997 9.7157 -11.5623 -18.9055 10.0364 -12.8644 -18.9549 9.24121 
-18.9784 -19.1912 9.24686 -19.7207 -19.3577 9.79072 -20.5598 -18.9956 10.2271 
-11.82 -19.4178 10.1704 -12.3871 -19.9226 10.0906 -12.6822 -19.6484 9.73888 
-13.8335 -19.9757 9.40518 -15.0514 -20.2139 9.22279 -16.0665 -20.2619 9.18668 
-16.9376 -20.1177 9.16533 -17.9451 -20.1233 9.42263 -18.9707 -20.0041 9.76529 
-19.6502 -20.1611 10.2999 -20.1272 -19.692 10.2916 -12.9808 -20.4136 10.1388 
-14.0246 -20.7273 9.82006 -14.4622 -21.067 9.90933 -14.7253 -20.7673 9.6272 
-15.6702 -20.8789 9.5944 -16.7993 -20.8226 9.62437 -17.7358 -21.1103 10.0841 
-18.4455 -20.6738 10.0071 -19.0524 -20.5796 10.2554 -15.0163 -21.4233 10.12 
-16.171 -21.4686 10.0531 -16.9772 -21.4733 10.1482 -15.1068 -10.2084 10.4828 
-14.7912 -9.59321 11.3144 -14.3256 -10.0783 10.8423 -16.233 -10.0344 10.5448 
-15.8849 -9.60859 11.1089 -16.8538 -9.98413 10.6388 -16.8282 -9.66144 11.0861 
-17.4541 -9.94252 10.9134 -13.05 -11.1519 10.4325 -13.0668 -10.6372 10.9086 
-12.5202 -11.0266 10.9273 -14.0483 -10.6263 10.399 -13.6011 -10.3734 10.8686 
-18.3764 -10.8718 10.3673 -17.9323 -10.392 10.6274 -18.913 -10.9186 10.6275 
-18.9279 -10.4307 11.1555 -19.4683 -10.9341 11.021 -12.017 -11.9723 10.4783 
-11.9866 -11.4504 10.937 -11.4957 -11.9248 10.9656 -20.077 -11.8992 10.5581 
-20.0282 -11.4271 10.992 -20.553 -11.9296 10.9801 -11.1809 -12.782 10.6075 
-11.0112 -12.4539 10.987 -10.5536 -13.1021 11.0088 -21.0745 -13.2797 10.5106 
-21.0258 -12.5212 10.9747 -21.5127 -13.0968 11.0633 -10.7341 -13.9886 10.3334 
-10.1696 -14.0162 10.8558 -21.1053 -13.7367 10.286 -21.5531 -13.7624 10.7221 
-10.1176 -14.7716 10.6263 -9.7957 -14.3776 11.1286 -9.65005 -15.1152 11.1205 
-21.9486 -15.3436 10.5602 -21.7836 -14.5416 10.6072 -22.3035 -14.7481 11.1771 
-10.0629 -15.72 10.5261 -9.60537 -16.1105 11.11 -21.9963 -16.2196 10.5663 
-22.4022 -15.696 11.1108 -10.1603 -16.7669 10.4929 -9.61567 -17.2163 11.2952 
-22.0185 -16.8311 10.6517 -22.406 -16.7446 11.1779 -10.227 -17.6736 10.6932 
-10.7344 -18.1508 10.3784 -10.4001 -18.3903 10.8384 -21.1258 -18.3955 10.3683 
-21.5921 -17.9448 10.6175 -22.0472 -17.4596 10.9127 -11.048 -18.808 10.4416 
-10.6079 -18.8732 10.9056 -21.0894 -18.9317 10.636 -21.5644 -18.9472 11.1499 
-11.0119 -19.4672 10.9322 -11.9418 -20.0038 10.5114 -11.4531 -20.0361 10.945 
-20.1096 -20.0831 10.5655 -20.5793 -20.0332 10.9978 -21.0725 -19.4795 11.0268 
-11.9536 -20.5352 10.9868 -12.8762 -20.9531 10.6635 -12.4574 -21.0247 11.0225 
-13.8411 -21.1539 10.2959 -18.2795 -21.1217 10.3008 -18.7308 -21.0883 10.5219 
-19.4809 -21.0301 10.9785 -20.0729 -20.5537 10.983 -12.9809 -21.4531 11.108 
-14.1808 -21.7404 10.7098 -14.9618 -21.9806 10.6701 -14.4417 -22.1838 11.0886 
-15.7575 -21.9798 10.5613 -16.6755 -21.9502 10.5668 -17.4817 -21.7938 10.6194 
-18.2507 -21.5653 10.7333 -18.9064 -21.5193 11.0685 -15.2502 -22.4214 11.1997 
-16.3336 -22.4066 11.1171 -17.2819 -22.3126 11.1859 -13.0036 -10.2286 11.4385 
-12.6422 -9.79097 12.2791 -12.308 -10.2912 11.8731 -13.9286 -9.87343 11.2766 
-13.7499 -9.40742 12.0438 -14.7795 -9.14621 11.9694 -15.6371 -9.18088 11.7735 
-16.6586 -9.2382 11.7352 -18.3475 -9.94984 11.3336 -17.8541 -9.41561 11.855 
-18.9326 -9.99869 11.6072 -18.9023 -9.68955 12.0419 -19.4303 -10.0269 11.9852 
-11.967 -10.9972 11.4212 -11.917 -10.5648 11.891 -11.4464 -10.9826 11.9275 
-20.0111 -10.9394 11.4491 -19.9732 -10.4734 11.9831 -20.5038 -10.9637 11.9276 
-10.9951 -11.9257 11.4736 -10.9661 -11.417 11.9707 -10.5325 -11.845 12.0464 
-21.0368 -11.968 11.4179 -21.007 -11.471 11.9278 -21.4699 -12.043 11.8467 
-10.2335 -12.6796 11.6605 -10.0253 -12.3388 12.2019 -9.69007 -13.0648 12.0798 
-22.0115 -13.3417 11.4946 -21.7591 -12.636 11.677 -22.2934 -12.7832 12.3009 
-9.9164 -13.6108 11.3913 -9.37415 -14.1769 11.8799 -22.0909 -14.0421 11.1869 
-22.5916 -13.8236 12.0434 -9.22587 -15.3778 11.7394 -22.7545 -15.0154 11.7933 
-9.18327 -16.398 11.7726 -22.7993 -16.0444 11.7301 -9.15215 -17.2515 11.9746 
-22.8165 -16.9306 11.8574 -9.9042 -18.063 11.2437 -9.40401 -18.2547 12.0526 
-22.0321 -18.3836 11.3145 -22.5713 -17.9271 11.8423 -10.1457 -18.845 11.4226 
-9.76859 -19.3152 12.2662 -21.9862 -18.9649 11.585 -22.2869 -18.9541 12.001 
-10.3683 -19.6138 11.7134 -11.002 -20.0473 11.3994 -10.5603 -20.0457 11.8553 
-21.0638 -20.0139 11.4512 -21.5222 -19.9834 11.9729 -21.9596 -19.4577 11.9592 
-11.0037 -20.5452 11.9186 -11.9536 -21.0416 11.4846 -11.4471 -21.0524 11.9756 
-20.0294 -21.034 11.4171 -20.5266 -21.005 11.9259 -21.0351 -20.5047 11.9254 
-11.9399 -21.5183 12.032 -12.7916 -21.8962 11.691 -12.3653 -22.0123 12.1755 
-13.6046 -22.0548 11.3519 -17.9774 -22.1019 11.1962 -18.665 -22.0177 11.4989 
-19.363 -21.76 11.6774 -19.9536 -21.4676 11.845 -13.0187 -22.2927 12.0333 
-14.1 -22.5932 11.8476 -15.1063 -22.8208 11.8496 -15.9879 -22.8018 11.7285 
-17.012 -22.7584 11.7945 -18.1892 -22.5963 12.046 -19.218 -22.2944 12.3009 
-14.4 -8.90339 12.5747 -14.0462 -8.67498 13.4184 -13.6058 -8.96483 12.8198 
-15.3668 -8.85466 12.4424 -15.0937 -8.62622 13.2003 -16.363 -8.87112 12.3995 
-16.1246 -8.61348 13.1417 -17.3672 -8.9339 12.4645 -17.1281 -8.64594 13.1487 
-18.1848 -8.99013 12.6854 -18.0091 -8.73251 13.1866 -18.6415 -8.88276 13.2128 
-11.8389 -10.2994 12.3503 -11.9958 -9.76494 13.0296 -11.4204 -10.2552 12.9479 
-12.8086 -9.24687 13.0216 -18.9592 -9.25183 12.8414 -19.9228 -10.0268 12.4633 
-19.658 -9.70286 12.7223 -20.4039 -10.0223 13.1463 -10.97 -10.9784 12.5192 
-10.9117 -10.5218 13.2692 -10.4807 -11.0686 13.0936 -20.9889 -10.9823 12.4593 
-20.8155 -10.6006 12.7929 -21.446 -11.0035 13.1084 -10.24 -11.6774 12.637 
-9.98229 -11.4989 13.3349 -9.7056 -12.3009 12.782 -21.9762 -12.1991 12.3407 
-21.768 -11.6566 12.6832 -22.3106 -12.0776 13.0669 -9.2257 -13.1122 12.819 
-22.774 -12.8194 13.1122 -8.96696 -13.8895 12.6628 -8.86371 -13.4323 13.1765 
-8.72332 -14.0392 13.1652 -23.0272 -13.5767 12.8728 -23.0708 -14.373 12.5699 
-23.276 -13.7984 13.3328 -8.91978 -14.6863 12.4554 -8.64437 -14.8968 13.1417 
-23.1184 -15.3792 12.4149 -23.3527 -14.6747 13.2121 -8.86843 -15.674 12.3967 
-8.61489 -15.8894 13.1421 -23.1185 -16.3952 12.391 -23.3766 -15.686 13.139 
-8.8567 -16.6622 12.4465 -8.6285 -16.9194 13.2058 -23.0542 -17.3927 12.4622 
-23.3538 -16.7402 13.1478 -8.90604 -17.6257 12.5878 -8.67823 -17.9712 13.4312 
-22.9809 -18.2324 12.6503 -23.2915 -17.832 13.3048 -8.96573 -18.4204 12.8428 
-9.23668 -19.2049 13.0456 -22.7157 -19.0253 12.773 -23.0913 -18.667 13.1958 
[...]
POINT_DATA 1158
FIELD FieldData 7
normals 3 1158 double
-0.14295713603 -0.25812444091 0.95547628403 -0.2519338131 -0.43634560704 0.86378926039 -0.29786127806 -0.32003560662 0.89936411381 
-0.060928620398 -0.25425097346 0.96521711349 -0.14362023771 -0.40201056004 0.90430122614 0.0037699171808 -0.24897700548 0.96850204468 
-0.043029397726 -0.37796270847 0.92482036352 0.073086969554 -0.26167836785 0.96238392591 0.048406668007 -0.39546391368 0.91720509529 
0.1758672893 -0.27925685048 0.94397372007 0.16228884459 -0.44061392546 0.88290518522 0.30596077442 -0.45983985066 0.83362782001 
-0.24901422858 -0.15773102641 0.95556938648 -0.42447018623 -0.28292945027 0.86010229588 -0.39968538284 -0.16450326145 0.90177059174 
-0.12641344965 -0.13446214795 0.9828222394 -0.050564039499 -0.14433971047 0.98823547363 -0.0044360202737 -0.13260087371 0.9911595583 
0.048276722431 -0.12573342025 0.99088871479 0.13614226878 -0.12540316582 0.98272037506 0.36039194465 -0.33014190197 0.87242412567 
0.29517525434 -0.15399971604 0.94295054674 0.4783629775 -0.26765656471 0.83637845516 -0.25498053432 -0.070376947522 0.96438169479 
-0.37990054488 -0.055584162474 0.92335581779 -0.14231932163 -0.057738747448 0.98813527822 -0.050504598767 -0.054192639887 0.99725240469 
-0.00056389911333 -0.05302310735 0.99859315157 0.047454118729 -0.045632813126 0.99783051014 0.12859858572 -0.042798265815 0.99077272415 
0.26773515344 -0.06143392995 0.96153199673 0.44664227962 -0.13398456573 0.88462352753 -0.25755935907 -0.0030488485936 0.96625769138 
-0.39811784029 0.032956365496 0.91674208641 -0.13655416667 -0.0096322475001 0.99058580399 -0.052558664232 -0.0043630013242 0.99860829115 
0.001005279948 -0.0010518457275 0.99999892712 0.051194619387 0.002088312991 0.99868649244 0.12800495327 0.0066826045513 0.99175101519 
0.24608239532 0.0003104172356 0.96924889088 0.39789456129 -0.034931991249 0.91676586866 -0.27719986439 0.064764194191 0.95862710476 
-0.44320270419 0.13522909582 0.88616275787 -0.13765139878 0.044798947871 0.98946714401 -0.049918171018 0.045538734645 0.99771457911 
0.0013824871276 0.050507612526 0.99872273207 0.048389818519 0.049587197602 0.99759685993 0.13215482235 0.05139073357 0.98989605904 
0.2426700294 0.063882388175 0.96800327301 0.37700811028 0.052144955844 0.92474097013 -0.30234235525 0.16141188145 0.93943351507 
-0.47450706363 0.26954808831 0.83796596527 -0.14740404487 0.13256187737 0.98015272617 -0.054669115692 0.12914027274 0.99011820555 
0.0012236478506 0.13129924238 0.99134200811 0.045883096755 0.13777241111 0.98940056562 0.11626008898 0.12522779405 0.98529267311 
0.23774299026 0.14941193163 0.95976787806 0.39979502559 0.16540029645 0.90155792236 -0.36103495955 0.33136624098 0.87169384956 
-0.30680036545 0.45584627986 0.83551049232 -0.1847486943 0.28286093473 0.94120007753 -0.081442065537 0.2645393014 0.960929811 
-0.010472233407 0.25013941526 0.9681532383 0.053540516645 0.2530721426 0.96596473455 0.13128842413 0.25423175097 0.95819073915 
0.29333144426 0.32312950492 0.89974659681 0.42600238323 0.2854462266 0.85851168633 -0.16515259445 0.43588840961 0.88471800089 
-0.050981950015 0.39409953356 0.91765260696 0.038961522281 0.38229840994 0.92321711779 0.13940869272 0.41108164191 0.9008757472 
0.24740186334 0.44525897503 0.86054444313 -0.10645335913 -0.56584322453 0.81761187315 -0.13844706118 -0.66000449657 0.73839449883 
-0.23255556822 -0.62111616135 0.74842000008 0.055150546134 -0.58834731579 0.8067253828 -0.011153374799 -0.66571736336 0.74612063169 
0.18552960455 -0.5711184144 0.79962646961 0.1477804333 -0.65979713202 0.73676902056 0.24887694418 -0.64254432917 0.72470486164 
-0.37322467566 -0.50518268347 0.77813476324 -0.41052764654 -0.59066665173 0.6946797967 -0.49000051618 -0.55017369986 0.67617183924 
-0.24949033558 -0.52753186226 0.81207436323 -0.31806194782 -0.60378360748 0.73094600439 -0.12774279714 -0.49534097314 0.85925495625 
-0.0019379054429 -0.50299018621 0.8642899394 0.13290056586 -0.51053023338 0.84952718019 0.31926813722 -0.56119686365 0.76362681389 
0.30894088745 -0.52193903923 0.79506927729 0.42489358783 -0.48898181319 0.76181507111 0.41322723031 -0.56582188606 0.71350455284 
0.45688092709 -0.55191200972 0.69760507345 -0.49404215813 -0.41621467471 0.76333987713 -0.58072781563 -0.47674351931 0.65990209579 
-0.58854371309 -0.39924094081 0.70300996304 -0.40645870566 -0.43384981155 0.80409306288 0.45833599567 -0.42459154129 0.78080093861 
0.54156792164 -0.46076819301 0.70313358307 0.51027268171 -0.38529276848 0.76887661219 0.57725244761 -0.41964408755 0.70048439503 
-0.51941102743 -0.29985535145 0.80018681288 -0.58236396313 -0.30203083158 0.75473803282 0.53548032045 -0.25454291701 0.80527549982 
0.56557744741 -0.33183082938 0.75499033928 -0.5609369278 -0.14622864127 0.81484168768 -0.6563051939 -0.21355204284 0.72364288568 
-0.6596121192 -0.12405850738 0.74129700661 -0.49111813307 -0.15285930037 0.85757625103 0.51618623734 -0.099011026323 0.85073411465 
0.6098561883 -0.25957220793 0.74879747629 0.57070583105 -0.14252732694 0.80869078636 0.65205407143 -0.16852013767 0.73920661211 
-0.57205051184 -0.015803026035 0.820066154 -0.66724288464 0.013816964813 0.74471199512 -0.49567055702 -0.03039726615 0.86797845364 
0.51075261831 0.032221101224 0.85912370682 0.58622336388 0.021734304726 0.80985790491 0.65114814043 -0.014686457813 0.75880861282 
-0.55606752634 0.1423214972 0.8188610673 -0.66538113356 0.16305448115 0.72847872972 -0.50104737282 0.097903519869 0.85986417532 
0.50291991234 0.15779945254 0.84980642796 0.58120989799 0.16288210452 0.797285676 0.65654319525 0.14454871416 0.74030852318 
-0.62456637621 0.24952973425 0.74003493786 -0.57714015245 0.31284987926 0.75434350967 -0.52828216553 0.24992929399 0.81145137548 
0.5258513093 0.3128503263 0.79095196724 0.57340496778 0.30823665857 0.75907635689 0.64236795902 0.23775005341 0.72858649492 
-0.49881672859 0.37675058842 0.78053885698 -0.56527149677 0.40282043815 0.71986377239 -0.45148929954 0.4195137918 0.7875059247 
0.4148876965 0.45084175467 0.7903226614 0.49884188175 0.43530592322 0.74944341183 0.57519131899 0.41588270664 0.7044121623 
-0.54450827837 0.47031438351 0.69448912144 -0.47112292051 0.5376715064 0.69925141335 -0.42190095782 0.48358339071 0.76690715551 
-0.31089922786 0.5149281621 0.79886835814 -0.12525090575 0.50059396029 0.85657340288 0.011657280847 0.50759088993 0.8615193367 
0.1306745708 0.50741773844 0.85173434019 0.25765931606 0.53877639771 0.80207961798 0.39139938354 0.52297127247 0.75717079639 
0.46934252977 0.55062812567 0.69030874968 0.55956161022 0.46683716774 0.68480205536 -0.41519626975 0.57045155764 0.70865863562 
-0.3298971653 0.56266880035 0.758005023 -0.23710682988 0.65602177382 0.71653044224 -0.16782999039 0.55852627754 0.81233090162 
-0.035252779722 0.58881628513 0.80749773979 0.12872937322 0.57808738947 0.80575668812 0.25221320987 0.61386811733 0.74803370237 
0.33331820369 0.57755309343 0.74520552158 0.42405053973 0.58722323179 0.68945634365 -0.14504727721 0.66913068295 0.72885209322 
0.017879566178 0.65412992239 0.75617080927 0.16382822394 0.64780640602 0.74398058653 -0.14226557314 -0.73817926645 0.65943300724 
-0.1632425189 -0.79765129089 0.5806068778 -0.23600311577 -0.72922164202 0.64229148626 0.0041518001817 -0.74331015348 0.66893398762 
-0.034744281322 -0.81174385548 0.58297920227 0.14162983 -0.73643749952 0.6615139842 0.11848587543 -0.82437074184 0.55351060629 
0.24641861022 -0.7503144145 0.61343789101 -0.42464703321 -0.62496089935 0.65505629778 -0.42599123716 -0.65737783909 0.62159943581 
-0.48128917813 -0.61806416512 0.62157666683 -0.29020982981 -0.66474419832 0.68839919567 -0.35395252705 -0.68617618084 0.63551545143 
0.36063703895 -0.63212656975 0.68582576513 0.29947391152 -0.69034922123 0.6585842967 0.42616829276 -0.61853080988 0.66015160084 
0.42200163007 -0.66232854128 0.61906015873 0.47545608878 -0.62323725224 0.6208999753 -0.54819756746 -0.5385196805 0.63990318775 
-0.52883321047 -0.57652157545 0.62286299467 -0.57845145464 -0.53284209967 0.61763513088 0.52950465679 -0.54486256838 0.65019208193 
0.52060484886 -0.59783381224 0.60956156254 0.58101600409 -0.54157465696 0.6075502634 -0.60260629654 -0.43767601252 0.66731196642 
-0.63185214996 -0.47839212418 0.60983920097 -0.65383857489 -0.41534769535 0.63244080544 0.62703818083 -0.39863744378 0.66926175356 
0.62229710817 -0.46402576566 0.63041758537 0.67167216539 -0.40650194883 0.61936473846 -0.65170586109 -0.32495379448 0.68533533812 
-0.68851220608 -0.31940180063 0.65110176802 0.63218635321 -0.32301175594 0.70427531004 0.68397212029 -0.33084270358 0.65017330647 
-0.71136391163 -0.1849629581 0.67804884911 -0.78068065643 -0.23463749886 0.57920897007 -0.81029176712 -0.11383571476 0.57486402988 
0.74902021885 -0.10836911947 0.6536244154 0.71055173874 -0.24730211496 0.65875476599 0.80019438267 -0.19168011844 0.56828486919 
-0.74684154987 -0.037966683507 0.66391736269 -0.81144011021 0.028898121789 0.58372068405 0.74513113499 0.030101319775 0.66623836756 
0.82230216265 -0.047567147762 0.56705957651 -0.75134974718 0.13114835322 0.64674073458 -0.79431003332 0.17221459746 0.58259224892 
0.73766487837 0.15125450492 0.65800648928 0.82204729319 0.1120313555 0.55828946829 -0.71859169006 0.24186009169 0.65201973915 
-0.64732176065 0.31525975466 0.69396388531 -0.69026362896 0.34651315212 0.63518875837 0.63653969765 0.35386568308 0.6852709651 
0.68956327438 0.29056176543 0.66338253021 0.74885797501 0.23500858247 0.61966335773 -0.61814957857 0.40690547228 0.67254662514 
-0.65967214108 0.42472547293 0.62003296614 0.62274342775 0.42483797669 0.65704131126 0.6564411521 0.42267683148 0.6248434782 
-0.61723822355 0.46691593528 0.63325077295 -0.5251891017 0.54636925459 0.65242391825 -0.56783014536 0.53445625305 0.626039505 
0.5488280654 0.53636604548 0.64117020369 0.59717595577 0.5261965394 0.60539084673 0.62246805429 0.4800824523 0.61810541153 
-0.52332186699 0.58374661207 0.62078511715 -0.43192121387 0.60860860348 0.66561216116 -0.48247954249 0.62389051914 0.61479598284 
-0.34893095493 0.64901697636 0.67603558302 0.32063394785 0.63843613863 0.69970935583 0.40108790994 0.63207840919 0.66302740574 
0.46775665879 0.62497341633 0.62498956919 0.54360371828 0.58444416523 0.60242843628 -0.42187994719 0.65517050028 0.62671273947 
-0.29998254776 0.68029141426 0.66874068975 -0.1614986062 0.73468744755 0.6589025259 -0.23411157727 0.77305221558 0.58956098557 
-0.037877175957 0.74526000023 0.66569721699 0.103987284 0.74555391073 0.6582826376 0.24430215359 0.70795238018 0.6626611948 
0.33305564523 0.68359184265 0.64944297075 0.41054818034 0.67162585258 0.61674058437 -0.10011903197 0.81935113668 0.56448197365 
0.04599230364 0.81889510155 0.57209742069 0.19131880999 0.79941755533 0.56949865818 -0.41585847735 -0.70487099886 0.57464653254 
-0.43482965231 -0.74968206882 0.49889871478 -0.46700102091 -0.68484210968 0.55937582254 -0.30685219169 -0.75996774435 0.57296657562 
-0.31124767661 -0.79120951891 0.5264146924 -0.15564064682 -0.84956616163 0.5039973855 -0.03395858407 -0.86076074839 0.50787562132 
0.091315031052 -0.85964441299 0.50266587734 0.31937146187 -0.74115198851 0.59050446749 0.24595655501 -0.81579971313 0.52342736721 
0.40398833156 -0.70867854357 0.57841867208 0.36500158906 -0.78968805075 0.49311926961 0.47811567783 -0.69366127253 0.53873872757 
-0.52643311024 -0.6052532196 0.59710693359 -0.53648132086 -0.64110779762 0.5487883091 -0.58443689346 -0.60240322351 0.54363954067 
0.52353012562 -0.62713724375 0.57672780752 0.53898346424 -0.65171122551 0.53363776207 0.57435762882 -0.62202817202 0.53215998411 
-0.61275017262 -0.52842843533 0.58762282133 -0.61445248127 -0.5767596364 0.53832751513 -0.65100353956 -0.54016762972 0.53330415487 
0.61366194487 -0.53736966848 0.57849192619 0.61104625463 -0.58953416348 0.52827262878 0.65164154768 -0.53221869469 0.54046887159 
-0.67570483685 -0.45162978768 0.58262628317 -0.71783286333 -0.48262736201 0.5017837286 -0.77067786455 -0.38478726149 0.50793135166 
0.74127852917 -0.36428105831 0.56374233961 0.6935377717 -0.44581153989 0.56591284275 0.77528518438 -0.40309157968 0.48626121879 
-0.74145412445 -0.35715261102 0.56805604696 -0.82079595327 -0.24539013207 0.51582717896 0.7570348382 -0.29280269146 0.58409321308 
0.80525392294 -0.29321712255 0.51535403728 -0.85932075977 -0.081118658185 0.50496298075 0.85307371616 -0.13774690032 0.50328016281 
-0.8601320982 0.043355938047 0.50822538137 0.8692830801 -0.00080035877181 0.4943138659 -0.84786754847 0.16065478325 0.50528275967 
0.86091071367 0.12374337018 0.49347785115 -0.75682246685 0.29292139411 0.58430892229 -0.79368364811 0.30608066916 0.52571940422 
0.73206996918 0.31609901786 0.60345256329 0.81238895655 0.24711513519 0.5281649828 -0.71506232023 0.39532521367 0.57654476166 
-0.75208556652 0.42745479941 0.50164693594 0.69622051716 0.40733978152 0.59105938673 0.77904123068 0.36989411712 0.50623416901 
-0.68029916286 0.45583990216 0.5739364624 -0.59609776735 0.54187238216 0.59248775244 -0.64338320494 0.54891169071 0.53362351656 
0.62308835983 0.52834117413 0.57672917843 0.64022952318 0.54744017124 0.53890198469 0.67734402418 0.48758471012 0.55087763071 
-0.6014379859 0.59265673161 0.53575205803 -0.52676343918 0.61818772554 0.58340746164 -0.57576155663 0.61636400223 0.5372095108 
0.53823584318 0.61452507973 0.57676780224 0.58745455742 0.61288809776 0.52845555544 0.61758506298 0.57847619057 0.5328733325 
-0.54286146164 0.63416278362 0.55058056116 -0.44819027185 0.66352671385 0.59904742241 -0.49029302597 0.6950289011 0.52587789297 
-0.34342828393 0.72183609009 0.60084086657 0.29634830356 0.75614702702 0.58345460892 0.36995589733 0.73974394798 0.56206011772 
0.449680686 0.69229990244 0.56436526775 0.53323316574 0.65106856823 0.54015922546 -0.37581983209 0.76721525192 0.51975005865 
-0.24785649776 0.81622111797 0.52187174559 -0.11603495479 0.86244243383 0.49267521501 0.0032896192279 0.86877179146 0.49520173669 
0.13853134215 0.85376644135 0.50188821554 0.29670602083 0.80589187145 0.5123513341 0.40722939372 0.77383267879 0.48512607813 
-0.16312399507 -0.90070092678 0.40265160799 -0.14906188846 -0.95947808027 0.23912836611 -0.28454506397 -0.85811722279 0.42739778757 
-0.049201712012 -0.92342865467 0.38060304523 -0.062310714275 -0.96706527472 0.24678345025 0.037856176496 -0.91678678989 0.39757880569 
0.0045265844092 -0.96752142906 0.25274854898 0.13699731231 -0.88790643215 0.43915128708 0.072084031999 -0.95871686935 0.27507433295 
0.27071937919 -0.840020895 0.47018709779 0.16847231984 -0.93860417604 0.3010635972 0.33330756426 -0.87205576897 0.35836407542 
-0.55065339804 -0.6902833581 0.46935033798 -0.52297145128 -0.75716757774 0.3914051652 -0.58730006218 -0.68940383196 0.42402946949 
-0.45064043999 -0.79018199444 0.41537407041 0.4143846333 -0.79478472471 0.44339874387 0.56491476297 -0.67933273315 0.46837833524 
0.4798682034 -0.77708631754 0.40726327896 0.57420712709 -0.7153391242 0.39821606874 -0.62497538328 -0.624971807 0.46777760983 
-0.63211619854 -0.66299951077 0.40107443929 -0.67162358761 -0.61674201488 0.41054967046 0.62950563431 -0.61355155706 0.47673591971 
0.5958314538 -0.6743246913 0.43620067835 0.65308201313 -0.63359957933 0.41477170587 -0.69228631258 -0.5643761754 0.44968789816 
-0.73974078894 -0.56206655502 0.36995232105 -0.77383595705 -0.48512932658 0.40721908212 0.7195006609 -0.49988391995 0.48211491108 
0.67594820261 -0.58338052034 0.45028999448 0.77146732807 -0.50719797611 0.38417229056 -0.79159611464 -0.41364637017 0.44974708557 
0.79096525908 -0.44861370325 0.41607657075 -0.84588474035 -0.26004749537 0.46567612886 -0.87507724762 -0.32438105345 0.3591889739 
-0.94288522005 -0.15693725646 0.2938337326 0.83520615101 -0.3097525835 0.45440512896 0.88363814354 -0.16873978078 0.43670415878 
0.94011640549 -0.18667954206 0.28518748283 -0.89244180918 -0.12417728454 0.43373674154 -0.96107321978 -0.064412847161 0.26868024468 
0.91566324234 -0.057021766901 0.39788103104 0.95889610052 -0.085071124136 0.27070498466 -0.91855055094 -0.028840474784 0.39424997568 
-0.96817976236 -0.0012969566742 0.25025233626 0.92344170809 0.037784464657 0.38187396526 0.96631717682 -0.010561320931 0.25713729858 
-0.92349171638 0.054677929729 0.37970164418 -0.96707141399 0.06426563859 0.24625760317 0.90294986963 0.14036592841 0.40617579222 
0.96389085054 0.058520890772 0.25978788733 -0.90114510059 0.16547706723 0.40069308877 -0.9594835639 0.14986418188 0.23860451579 
0.86259591579 0.25001353025 0.439797014 0.95475703478 0.14217115939 0.26120203733 -0.85964256525 0.2845389843 0.42432561517 
-0.79350429773 0.44674322009 0.41324499249 0.80372840166 0.4048192203 0.43605288863 0.89867937565 0.29732742906 0.32244643569 
-0.69488286972 0.53425186872 0.48136550188 -0.7553088069 0.52220624685 0.39599144459 0.66043192148 0.57989382744 0.47702494264 
0.76430845261 0.49218142033 0.41664141417 -0.67322099209 0.58806741238 0.44827464223 -0.61740648746 0.6231803298 0.48005780578 
-0.65620517731 0.63460665941 0.40825128555 0.60957109928 0.63212811947 0.47836926579 0.667139709 0.60279524326 0.43767857552 
0.70312410593 0.58841115236 0.39923527837 -0.61653161049 0.65601301193 0.4353570044 -0.57219582796 0.67475664616 0.46614959836 
-0.58260923624 0.72402715683 0.36925747991 0.50176441669 0.71785187721 0.48261904716 0.5825445652 0.67578715086 0.45161223412 
0.63224953413 0.65406113863 0.41528865695 -0.48680126667 0.77113908529 0.41032791138 -0.39928898215 0.80528205633 0.43827965856 
-0.24471107125 0.86541116238 0.43724149466 -0.2925401032 0.89981120825 0.32366678119 -0.13448306918 0.90506267548 0.40345486999 
-0.034946586937 0.92417788506 0.38036039472 0.057412192225 0.91661387682 0.3956297338 0.16977156699 0.88509702682 0.43333688378 
0.31099438667 0.83697789907 0.45027825236 0.44976532459 0.79158198833 0.41365346313 0.50793266296 0.77067685127 0.38478785753 
-0.13934144378 0.95541983843 0.26030135155 -0.057083178312 0.96416676044 0.2590828836 0.010325877927 0.96655774117 0.25624123216 
0.084835931659 0.95939236879 0.26901510358 0.18734078109 0.94062149525 0.28308036923 -0.32306289673 -0.89962631464 0.2937733829 
-0.2543874681 -0.95818662643 0.13101707399 -0.44548305869 -0.86043709517 0.24737179279 -0.12594003975 -0.98523569107 0.11597315222 
-0.05207599327 -0.98975223303 0.13296015561 -0.0054046791047 -0.99130672216 0.1314599216 0.050442837179 -0.98930680752 0.13684909046 
0.14143891633 -0.97853428125 0.14988544583 0.45521894097 -0.83660984039 0.30472883582 0.28962498903 -0.93868482113 0.18705111742 
0.43604713678 -0.8849285841 0.1635979563 -0.53888106346 -0.80203092098 0.25759187341 -0.57765638828 -0.74514073133 0.33328425884 
0.51243633032 -0.80545288324 0.29774928093 0.57147556543 -0.75709396601 0.31658241153 -0.63848435879 -0.69966459274 0.32063558698 
-0.68359512091 -0.64943724871 0.33305996656 0.65136426687 -0.68266177177 0.33120623231 0.68984460831 -0.650393188 0.31796720624 
-0.7561442852 -0.58345800638 0.29634884 -0.80589520931 -0.51235091686 0.29669758677 0.74144482613 -0.56888800859 0.35584542155 
0.82002025843 -0.51710826159 0.24528707564 -0.83698320389 -0.45027437806 0.310985744 -0.88509660959 -0.43333798647 0.16977122426 
-0.94061470032 -0.28309759498 0.18734906614 0.84482592344 -0.46667978168 0.26168522239 0.87427252531 -0.35887172818 0.32689255476 
0.94288861752 -0.29355955124 0.15742905438 -0.97992283106 -0.13540881872 0.14634111524 0.97992408276 -0.1461250484 0.13563279808 
-0.9896619916 -0.04856113717 0.1349478215 0.98944532871 -0.05567285791 0.1337852031 -0.99130183458 0.0054791425355 0.13149411976 
0.9905834198 0.0021935107652 0.13689343631 -0.9896209836 0.052783641964 0.1336568743 0.98796212673 0.050674844533 0.14616045356 
-0.98514723778 0.12606428564 0.11658760905 0.98267251253 0.1270390749 0.13496570289 -0.90167951584 0.31992575526 0.29089769721 
-0.95936399698 0.25080695748 0.12929201126 0.85956817865 0.42461192608 0.28433644772 0.95546275377 0.24912418425 0.15820276737 
-0.86475116014 0.43915271759 0.24361917377 -0.80712217093 0.53300201893 0.25389498472 0.80022466183 0.5191988349 0.30012172461 