# vtk DataFile Version 5.1
vtk output
ASCII
DATASET POLYDATA
POINTS 2166 float
-14 -13 8.5 -14 -12.5 9 -13.5 -13 9 
-15 -13 8.5 -15 -12.5 9 -16 -13 8.5 
-16 -12.5 9 -17 -13 8.5 -17 -12.5 9 
-18 -13 8.5 -18 -12.5 9 -18.5 -13 9 
-13 -14 8.5 -13 -13.5 9 -12.5 -14 9 
-14 -14 8.5 -15 -14 8.5 -16 -14 8.5 
-17 -14 8.5 -18 -14 8.5 -19 -13.5 9 
-19 -14 8.5 -19.5 -14 9 -13 -15 8.5 
-12.5 -15 9 -14 -15 8.5 -15 -15 8.5 
-16 -15 8.5 -17 -15 8.5 -18 -15 8.5 
-19 -15 8.5 -19.5 -15 9 -13 -16 8.5 
-12.5 -16 9 -14 -16 8.5 -15 -16 8.5 
-16 -16 8.5 -17 -16 8.5 -18 -16 8.5 
-19 -16 8.5 -19.5 -16 9 -13 -17 8.5 
-12.5 -17 9 -14 -17 8.5 -15 -17 8.5 
-16 -17 8.5 -17 -17 8.5 -18 -17 8.5 
-19 -17 8.5 -19.5 -17 9 -13 -18 8.5 
-12.5 -18 9 -14 -18 8.5 -15 -18 8.5 
-16 -18 8.5 -17 -18 8.5 -18 -18 8.5 
-19 -18 8.5 -19.5 -18 9 -13 -18.5 9 
-13.5 -19 9 -14 -19 8.5 -15 -19 8.5 
-16 -19 8.5 -17 -19 8.5 -18 -19 8.5 
-18.5 -19 9 -19 -18.5 9 -14 -19.5 9 
-15 -19.5 9 -16 -19.5 9 -17 -19.5 9 
-18 -19.5 9 -15 -11 9.5 -15 -10.5 10 
-14.5 -11 10 -16 -11 9.5 -16 -10.5 10 
-17 -11 9.5 -17 -10.5 10 -17.5 -11 10 
-13 -12 9.5 -13 -11.5 10 -12.5 -12 10 
-14 -12 9.5 -14 -11.5 10 -15 -12 9.5 
-16 -12 9.5 -17 -12 9.5 -18 -11.5 10 
-18 -12 9.5 -19 -12 9.5 -19 -11.5 10 
-19.5 -12 10 -12 -13 9.5 -12 -12.5 10 
-11.5 -13 10 -13 -13 9.5 -19 -13 9.5 
-20 -12.5 10 -20 -13 9.5 -20.5 -13 10 
-12 -14 9.5 -11.5 -14 10 -20 -14 9.5 
-20.5 -14 10 -11 -15 9.5 -11 -14.5 10 
-10.5 -15 10 -12 -15 9.5 -20 -15 9.5 
-21 -14.5 10 -21 -15 9.5 -21.5 -15 10 
-11 -16 9.5 -10.5 -16 10 -12 -16 9.5 
-20 -16 9.5 -21 -16 9.5 -21.5 -16 10 
-11 -17 9.5 -10.5 -17 10 -12 -17 9.5 
-20 -17 9.5 -21 -17 9.5 -21.5 -17 10 
-11 -17.5 10 -11.5 -18 10 -12 -18 9.5 
-20 -18 9.5 -20.5 -18 10 -21 -17.5 10 
-12 -19 9.5 -11.5 -19 10 -13 -19 9.5 
-19 -19 9.5 -20 -19 9.5 -20.5 -19 10 
-12 -19.5 10 -12.5 -20 10 -13 -20 9.5 
-14 -20 9.5 -15 -20 9.5 -16 -20 9.5 
-17 -20 9.5 -18 -20 9.5 -19 -20 9.5 
-19.5 -20 10 -20 -19.5 10 -13 -20.5 10 
-14 -20.5 10 -14.5 -21 10 -15 -21 9.5 
-16 -21 9.5 -17 -21 9.5 -17.5 -21 10 
-18 -20.5 10 -19 -20.5 10 -15 -21.5 10 
-16 -21.5 10 -17 -21.5 10 -15 -10 10.5 
-15 -9.5 11 -14.5 -10 11 -16 -10 10.5 
-16 -9.5 11 -17 -10 10.5 -17 -9.5 11 
-17.5 -10 11 -13 -11 10.5 -13 -10.5 11 
-12.5 -11 11 -14 -11 10.5 -14 -10.5 11 
-18 -11 10.5 -18 -10.5 11 -19 -11 10.5 
-19 -10.5 11 -19.5 -11 11 -12 -12 10.5 
-12 -11.5 11 -11.5 -12 11 -20 -12 10.5 
-20 -11.5 11 -20.5 -12 11 -11 -13 10.5 
-11 -12.5 11 -10.5 -13 11 -21 -13 10.5 
-21 -12.5 11 -21.5 -13 11 -11 -14 10.5 
-10.5 -14 11 -21 -14 10.5 -21.5 -14 11 
-10 -15 10.5 -10 -14.5 11 -9.5 -15 11 
-22 -15 10.5 -22 -14.5 11 -22.5 -15 11 
-10 -16 10.5 -9.5 -16 11 -22 -16 10.5 
-22.5 -16 11 -10 -17 10.5 -9.5 -17 11 
-22 -17 10.5 -22.5 -17 11 -10 -17.5 11 
-11 -18 10.5 -10.5 -18 11 -21 -18 10.5 
-21.5 -18 11 -22 -17.5 11 -11 -19 10.5 
-10.5 -19 11 -21 -19 10.5 -21.5 -19 11 
-11 -19.5 11 -12 -20 10.5 -11.5 -20 11 
-20 -20 10.5 -20.5 -20 11 -21 -19.5 11 
-12 -20.5 11 -13 -21 10.5 -12.5 -21 11 
-14 -21 10.5 -18 -21 10.5 -19 -21 10.5 
-19.5 -21 11 -20 -20.5 11 -13 -21.5 11 
-14 -21.5 11 -15 -22 10.5 -14.5 -22 11 
-16 -22 10.5 -17 -22 10.5 -17.5 -22 11 
-18 -21.5 11 -19 -21.5 11 -15 -22.5 11 
-16 -22.5 11 -17 -22.5 11 -13 -10 11.5 
-13 -9.5 12 -12.5 -10 12 -14 -10 11.5 
-14 -9.5 12 -15 -9.5 12 -16 -9.5 12 
-17 -9.5 12 -18 -10 11.5 -18 -9.5 12 
-19 -10 11.5 -19 -9.5 12 -19.5 -10 12 
-12 -11 11.5 -12 -10.5 12 -11.5 -11 12 
-20 -11 11.5 -20 -10.5 12 -20.5 -11 12 
-11 -12 11.5 -11 -11.5 12 -10.5 -12 12 
-21 -12 11.5 -21 -11.5 12 -21.5 -12 12 
-10 -13 11.5 -10 -12.5 12 -9.5 -13 12 
-22 -13 11.5 -22 -12.5 12 -22.5 -13 12 
-10 -14 11.5 -9.5 -14 12 -22 -14 11.5 
-22.5 -14 12 -9.5 -15 12 -22.5 -15 12 
-9.5 -16 12 -22.5 -16 12 -9.5 -17 12 
-22.5 -17 12 -10 -18 11.5 -9.5 -18 12 
-22 -18 11.5 -22.5 -18 12 -10 -19 11.5 
-9.5 -19 12 -22 -19 11.5 -22.5 -19 12 
-10 -19.5 12 -11 -20 11.5 -10.5 -20 12 
-21 -20 11.5 -21.5 -20 12 -22 -19.5 12 
-11 -20.5 12 -12 -21 11.5 -11.5 -21 12 
-20 -21 11.5 -20.5 -21 12 -21 -20.5 12 
-12 -21.5 12 -13 -22 11.5 -12.5 -22 12 
-14 -22 11.5 -18 -22 11.5 -19 -22 11.5 
-19.5 -22 12 -20 -21.5 12 -13 -22.5 12 
-14 -22.5 12 -15 -22.5 12 -16 -22.5 12 
-17 -22.5 12 -18 -22.5 12 -19 -22.5 12 
-14 -9 12.5 -14 -8.5 13 -13.5 -9 13 
-15 -9 12.5 -15 -8.5 13 -16 -9 12.5 
-16 -8.5 13 -17 -9 12.5 -17 -8.5 13 
-18 -9 12.5 -18 -8.5 13 -18.5 -9 13 
-12 -10 12.5 -12 -9.5 13 -11.5 -10 13 
-13 -9.5 13 -19 -9.5 13 -20 -10 12.5 
-20 -9.5 13 -20.5 -10 13 -11 -11 12.5 
-11 -10.5 13 -10.5 -11 13 -21 -11 12.5 
-21 -10.5 13 -21.5 -11 13 -10 -12 12.5 
-10 -11.5 13 -9.5 -12 13 -22 -12 12.5 
-22 -11.5 13 -22.5 -12 13 -9.5 -13 13 
-22.5 -13 13 -9 -14 12.5 -9 -13.5 13 
-8.5 -14 13 -23 -13.5 13 -23 -14 12.5 
-23.5 -14 13 -9 -15 12.5 -8.5 -15 13 
-23 -15 12.5 -23.5 -15 13 -9 -16 12.5 
-8.5 -16 13 -23 -16 12.5 -23.5 -16 13 
-9 -17 12.5 -8.5 -17 13 -23 -17 12.5 
-23.5 -17 13 -9 -18 12.5 -8.5 -18 13 
-23 -18 12.5 -23.5 -18 13 -9 -18.5 13 
-9.5 -19 13 -22.5 -19 13 -23 -18.5 13 
-10 -20 12.5 -9.5 -20 13 -22 -20 12.5 
-22.5 -20 13 -10 -20.5 13 -11 -21 12.5 
-10.5 -21 13 -21 -21 12.5 -21.5 -21 13 
-22 -20.5 13 -11 -21.5 13 -12 -22 12.5 
-11.5 -22 13 -20 -22 12.5 -20.5 -22 13 
-21 -21.5 13 -12 -22.5 13 -13 -22.5 13 
-14 -23 12.5 -13.5 -23 13 -15 -23 12.5 
-16 -23 12.5 -17 -23 12.5 -18 -23 12.5 
-18.5 -23 13 -19 -22.5 13 -20 -22.5 13 
-14 -23.5 13 -15 -23.5 13 -16 -23.5 13 
-17 -23.5 13 -18 -23.5 13 -13 -9 13.5 
-13 -8.5 14 -12.5 -9 14 -14 -8.5 14 
-15 -8.5 14 -16 -8.5 14 -17 -8.5 14 
-18 -8.5 14 -19 -9 13.5 -19 -8.5 14 
-19.5 -9 14 -12 -9.5 14 -11.5 -10 14 
-20 -9.5 14 -20.5 -10 14 -11 -10.5 14 
-10.5 -11 14 -21 -10.5 14 -21.5 -11 14 
-10 -11.5 14 -9.5 -12 14 -22 -11.5 14 
-22.5 -12 14 -9 -13 13.5 -9 -12.5 14 
-8.5 -13 14 -23 -12.5 14 -23 -13 13.5 
-23.5 -13 14 -8.5 -14 14 -23.5 -14 14 
-8.5 -15 14 -23.5 -15 14 -8.5 -16 14 
-23.5 -16 14 -8.5 -17 14 -23.5 -17 14 
-8.5 -18 14 -23.5 -18 14 -9 -19 13.5 
-8.5 -19 14 -23 -19 13.5 -23.5 -19 14 
-9 -19.5 14 -9.5 -20 14 -22.5 -20 14 
-23 -19.5 14 -10 -20.5 14 -10.5 -21 14 
-21.5 -21 14 -22 -20.5 14 -11 -21.5 14 
-11.5 -22 14 -20.5 -22 14 -21 -21.5 14 
-12 -22.5 14 -13 -23 13.5 -12.5 -23 14 
-19 -23 13.5 -19.5 -23 14 -20 -22.5 14 
-13 -23.5 14 -14 -23.5 14 -15 -23.5 14 
-16 -23.5 14 -17 -23.5 14 -18 -23.5 14 
-19 -23.5 14 -13 -8.5 15 -12.5 -9 15 
-14 -8.5 15 -15 -8.5 15 -16 -8.5 15 
-17 -8.5 15 -18 -8.5 15 -19 -8.5 15 
-19.5 -9 15 -11 -10 14.5 -11 -9.5 15 
-10.5 -10 15 -12 -9.5 15 -20 -9.5 15 
-21 -10 14.5 -21 -9.5 15 -21.5 -10 15 
-10 -11 14.5 -10 -10.5 15 -9.5 -11 15 
-22 -11 14.5 -22 -10.5 15 -22.5 -11 15 
-9.5 -12 15 -22.5 -12 15 -9 -12.5 15 
-8.5 -13 15 -23 -12.5 15 -23.5 -13 15 
-8.5 -14 15 -23.5 -14 15 -8.5 -15 15 
-23.5 -15 15 -8.5 -16 15 -23.5 -16 15 
-8.5 -17 15 -23.5 -17 15 -8.5 -18 15 
-23.5 -18 15 -8.5 -19 15 -23.5 -19 15 
-9 -19.5 15 -9.5 -20 15 -22.5 -20 15 
-23 -19.5 15 -10 -21 14.5 -9.5 -21 15 
-22 -21 14.5 -22.5 -21 15 -10 -21.5 15 
-11 -22 14.5 -10.5 -22 15 -21 -22 14.5 
-21.5 -22 15 -22 -21.5 15 -11 -22.5 15 
-12 -22.5 15 -12.5 -23 15 -19.5 -23 15 
-20 -22.5 15 -21 -22.5 15 -13 -23.5 15 
-14 -23.5 15 -15 -23.5 15 -16 -23.5 15 
-17 -23.5 15 -18 -23.5 15 -19 -23.5 15 
-13 -8.5 16 -12.5 -9 16 -14 -8.5 16 
-15 -8.5 16 -16 -8.5 16 -17 -8.5 16 
-18 -8.5 16 -19 -8.5 16 -19.5 -9 16 
-11 -9.5 16 -10.5 -10 16 -12 -9.5 16 
-20 -9.5 16 -21 -9.5 16 -21.5 -10 16 
-10 -10.5 16 -9.5 -11 16 -22 -10.5 16 
-22.5 -11 16 -9.5 -12 16 -22.5 -12 16 
-9 -12.5 16 -8.5 -13 16 -23 -12.5 16 
-23.5 -13 16 -8.5 -14 16 -23.5 -14 16 
-8.5 -15 16 -23.5 -15 16 -8.5 -16 16 
-23.5 -16 16 -8.5 -17 16 -23.5 -17 16 
-8.5 -18 16 -23.5 -18 16 -8.5 -19 16 
-23.5 -19 16 -9 -19.5 16 -9.5 -20 16 
-22.5 -20 16 -23 -19.5 16 -9.5 -21 16 
-22.5 -21 16 -10 -21.5 16 -10.5 -22 16 
-21.5 -22 16 -22 -21.5 16 -11 -22.5 16 
-12 -22.5 16 -12.5 -23 16 -19.5 -23 16 
-20 -22.5 16 -21 -22.5 16 -13 -23.5 16 
-14 -23.5 16 -15 -23.5 16 -16 -23.5 16 
-17 -23.5 16 -18 -23.5 16 -19 -23.5 16 
-13 -8.5 17 -12.5 -9 17 -14 -8.5 17 
-15 -8.5 17 -16 -8.5 17 -17 -8.5 17 
-18 -8.5 17 -19 -8.5 17 -19.5 -9 17 
-11 -9.5 17 -10.5 -10 17 -12 -9.5 17 
-20 -9.5 17 -21 -9.5 17 -21.5 -10 17 
-10 -10.5 17 -9.5 -11 17 -22 -10.5 17 
-22.5 -11 17 -9.5 -12 17 -22.5 -12 17 
-9 -12.5 17 -8.5 -13 17 -23 -12.5 17 
-23.5 -13 17 -8.5 -14 17 -23.5 -14 17 
-8.5 -15 17 -23.5 -15 17 -8.5 -16 17 
-23.5 -16 17 -8.5 -17 17 -23.5 -17 17 
-8.5 -18 17 -23.5 -18 17 -8.5 -19 17 
-23.5 -19 17 -9 -19.5 17 -9.5 -20 17 
-22.5 -20 17 -23 -19.5 17 -9.5 -21 17 
-22.5 -21 17 -10 -21.5 17 -10.5 -22 17 
-21.5 -22 17 -22 -21.5 17 -11 -22.5 17 
-12 -22.5 17 -12.5 -23 17 -19.5 -23 17 
-20 -22.5 17 -21 -22.5 17 -13 -23.5 17 
-14 -23.5 17 -15 -23.5 17 -16 -23.5 17 
-17 -23.5 17 -18 -23.5 17 -19 -23.5 17 
-13 -8.5 18 -12.5 -9 18 -14 -8.5 18 
-15 -8.5 18 -16 -8.5 18 -17 -8.5 18 
-18 -8.5 18 -19 -8.5 18 -19.5 -9 18 
-11 -10 17.5 -11.5 -10 18 -12 -9.5 18 
-20 -9.5 18 -21 -10 17.5 -20.5 -10 18 
-10 -11 17.5 -10.5 -11 18 -11 -10.5 18 
-21 -10.5 18 -22 -11 17.5 -21.5 -11 18 
-10 -11.5 18 -9.5 -12 18 -22 -11.5 18 
-22.5 -12 18 -9 -12.5 18 -8.5 -13 18 
-23 -12.5 18 -23.5 -13 18 -8.5 -14 18 
-23.5 -14 18 -8.5 -15 18 -23.5 -15 18 
-8.5 -16 18 -23.5 -16 18 -8.5 -17 18 
-23.5 -17 18 -8.5 -18 18 -23.5 -18 18 
-8.5 -19 18 -23.5 -19 18 -9 -19.5 18 
-9.5 -20 18 -22.5 -20 18 -23 -19.5 18 
-10 -20.5 18 -10 -21 17.5 -10.5 -21 18 
-22 -21 17.5 -21.5 -21 18 -22 -20.5 18 
-11 -21.5 18 -11 -22 17.5 -11.5 -22 18 
-21 -22 17.5 -20.5 -22 18 -21 -21.5 18 
-12 -22.5 18 -12.5 -23 18 -19.5 -23 18 
-20 -22.5 18 -13 -23.5 18 -14 -23.5 18 
-15 -23.5 18 -16 -23.5 18 -17 -23.5 18 
-18 -23.5 18 -19 -23.5 18 -13 -9 18.5 
-13.5 -9 19 -14 -8.5 19 -15 -8.5 19 
-16 -8.5 19 -17 -8.5 19 -18 -8.5 19 
-19 -9 18.5 -18.5 -9 19 -12 -9.5 19 
-11.5 -10 19 -13 -9.5 19 -19 -9.5 19 
-20 -9.5 19 -20.5 -10 19 -11 -10.5 19 
-10.5 -11 19 -21 -10.5 19 -21.5 -11 19 
-10 -11.5 19 -9.5 -12 19 -22 -11.5 19 
-22.5 -12 19 -9 -13 18.5 -9.5 -13 19 
-23 -13 18.5 -22.5 -13 19 -9 -13.5 19 
[...]
CELL_DATA 2312
FIELD FieldData 1
Intensity 1 2312 float
0.5 0.5 0.5 0.5 0.5 0.5 0.5 0.5 0.5 
0.5 0.5 0.5 0.5 0.5 0.5 0.5 0.5 0.5 
0.5 0.5 0.5 0.5 0.5 0.5 0.5 0.5 0.5 
0.5 0.5 0.5 0.5 0.5 0.5 0.5 0.5 0.5 
0.5 0.5 0.5 0.5 0.5 0.5 0.5 0.5 0.5 
0.5 0.5 0.5 0.5 0.5 0.5 0.5 0.5 0.5 
0.5 0.5 0.5 0.5 0.5 0.5 0.5 0.5 0.5 
0.5 0.5 0.5 0.5 0.5 0.5 0.5 0.5 0.5 
0.5 0.5 0.5 0.5 0.5 0.5 0.5 0.5 0.5 
0.5 0.5 0.5 0.5 0.5 0.5 0.5 0.5 0.5 
0.5 0.5 0.5 0.5 0.5 0.5 0.5 0.5 0.5 
0.5 0.5 0.5 0.5 0.5 0.5 0.5 0.5 0.5 
0.5 0.5 0.5 0.5 0.5 0.5 0.5 0.5 0.5 
0.5 0.5 0.5 0.5 0.5 0.5 0.5 0.5 0.5 
0.5 0.5 0.5 0.5 0.5 0.5 0.5 0.5 0.5 
0.5 0.5 0.5 0.5 0.5 0.5 0.5 0.5 0.5 
0.5 0.5 0.5 0.5 0.5 0.5 0.5 0.5 0.5 
0.5 0.5 0.5 0.5 0.5 0.5 0.5 0.5 0.5 
0.5 0.5 0.5 0.5 0.5 0.5 0.5 0.5 0.5 
0.5 0.5 0.5 0.5 0.5 0.5 0.5 0.5 0.5 
0.5 0.5 0.5 0.5 0.5 0.5 0.5 0.5 0.5 
0.5 0.5 0.5 0.5 0.5 0.5 0.5 0.5 0.5 
0.5 0.5 0.5 0.5 0.5 0.5 0.5 0.5 0.5 
0.5 0.5 0.5 0.5 0.5 0.5 0.5 0.5 0.5 
0.5 0.5 0.5 0.5 0.5 0.5 0.5 0.5 0.5 
0.5 0.5 0.5 0.5 0.5 0.5 0.5 0.5 0.5 
0.5 0.5 0.5 0.5 0.5 0.5 0.5 0.5 0.5 
0.5 0.5 0.5 0.5 0.5 0.5 0.5 0.5 0.5 
0.5 0.5 0.5 0.5 0.5 0.5 0.5 0.5 0.5 
0.5 0.5 0.5 0.5 0.5 0.5 0.5 0.5 0.5 
0.5 0.5 0.5 0.5 0.5 0.5 0.5 0.5 0.5 
0.5 0.5 0.5 0.5 0.5 0.5 0.5 0.5 0.5 
0.5 0.5 0.5 0.5 0.5 0.5 0.5 0.5 0.5 
0.5 0.5 0.5 0.5 0.5 0.5 0.5 0.5 0.5 
0.5 0.5 0.5 0.5 0.5 0.5 0.5 0.5 0.5 
0.5 0.5 0.5 0.5 0.5 0.5 0.5 0.5 0.5 
0.5 0.5 0.5 0.5 0.5 0.5 0.5 0.5 0.5 
0.5 0.5 0.5 0.5 0.5 0.5 0.5 0.5 0.5 
0.5 0.5 0.5 0.5 0.5 0.5 0.5 0.5 0.5 
0.5 0.5 0.5 0.5 0.5 0.5 0.5 0.5 0.5 
0.5 0.5 0.5 0.5 0.5 0.5 0.5 0.5 0.5 
0.5 0.5 0.5 0.5 0.5 0.5 0.5 0.5 0.5 
0.5 0.5 0.5 0.5 0.5 0.5 0.5 0.5 0.5 
0.5 0.5 0.5 0.5 0.5 0.5 0.5 0.5 0.5 
0.5 0.5 0.5 0.5 0.5 0.5 0.5 0.5 0.5 
0.5 0.5 0.5 0.5 0.5 0.5 0.5 0.5 0.5 
0.5 0.5 0.5 0.5 0.5 0.5 0.5 0.5 0.5 
0.5 0.5 0.5 0.5 0.5 0.5 0.5 0.5 0.5 
0.5 0.5 0.5 0.5 0.5 0.5 0.5 0.5 0.5 
0.5 0.5 0.5 0.5 0.5 0.5 0.5 0.5 0.5 
0.5 0.5 0.5 0.5 0.5 0.5 0.5 0.5 0.5 
0.5 0.5 0.5 0.5 0.5 0.5 0.5 0.5 0.5 
0.5 0.5 0.5 0.5 0.5 0.5 0.5 0.5 0.5 
0.5 0.5 0.5 0.5 0.5 0.5 0.5 0.5 0.5 
0.5 0.5 0.5 0.5 0.5 0.5 0.5 0.5 0.5 
0.5 0.5 0.5 0.5 0.5 0.5 0.5 0.5 0.5 
0.5 0.5 0.5 0.5 0.5 0.5 0.5 0.5 0.5 
0.5 0.5 0.5 0.5 0.5 0.5 0.5 0.5 0.5 
0.5 0.5 0.5 0.5 0.5 0.5 0.5 0.5 0.5 
0.5 0.5 0.5 0.5 0.5 0.5 0.5 0.5 0.5 
0.5 0.5 0.5 0.5 0.5 0.5 0.5 0.5 0.5 
0.5 0.5 0.5 0.5 0.5 0.5 0.5 0.5 0.5 
0.5 0.5 0.5 0.5 0.5 0.5 0.5 0.5 0.5 
0.5 0.5 0.5 0.5 0.5 0.5 0.5 0.5 0.5 
0.5 0.5 0.5 0.5 0.5 0.5 0.5 0.5 0.5 
0.5 0.5 0.5 0.5 0.5 0.5 0.5 0.5 0.5 
0.5 0.5 0.5 0.5 0.5 0.5 0.5 0.5 0.5 
0.5 0.5 0.5 0.5 0.5 0.5 0.5 0.5 0.5 
0.5 0.5 0.5 0.5 0.5 0.5 0.5 0.5 0.5 
0.5 0.5 0.5 0.5 0.5 0.5 0.5 0.5 0.5 
0.5 0.5 0.5 0.5 0.5 0.5 0.5 0.5 0.5 
0.5 0.5 0.5 0.5 0.5 0.5 0.5 0.5 0.5 
0.5 0.5 0.5 0.5 0.5 0.5 0.5 0.5 0.5 
0.5 0.5 0.5 0.5 0.5 0.5 0.5 0.5 0.5 
0.5 0.5 0.5 0.5 0.5 0.5 0.5 0.5 0.5 
0.5 0.5 0.5 0.5 0.5 0.5 0.5 0.5 0.5 
0.5 0.5 0.5 0.5 0.5 0.5 0.5 0.5 0.5 
0.5 0.5 0.5 0.5 0.5 0.5 0.5 0.5 0.5 
0.5 0.5 0.5 0.5 0.5 0.5 0.5 0.5 0.5 
0.5 0.5 0.5 0.5 0.5 0.5 0.5 0.5 0.5 
0.5 0.5 0.5 0.5 0.5 0.5 0.5 0.5 0.5 
0.5 0.5 0.5 0.5 0.5 0.5 0.5 0.5 0.5 
0.5 0.5 0.5 0.5 0.5 0.5 0.5 0.5 0.5 
0.5 0.5 0.5 0.5 0.5 0.5 0.5 0.5 0.5 
0.5 0.5 0.5 0.5 0.5 0.5 0.5 0.5 0.5 
0.5 0.5 0.5 0.5 0.5 0.5 0.5 0.5 0.5 
0.5 0.5 0.5 0.5 0.5 0.5 0.5 0.5 0.5 
0.5 0.5 0.5 0.5 0.5 0.5 0.5 0.5 0.5 
0.5 0.5 0.5 0.5 0.5 0.5 0.5 0.5 0.5 
0.5 0.5 0.5 0.5 0.5 0.5 0.5 0.5 0.5 
0.5 0.5 0.5 0.5 0.5 0.5 0.5 0.5 0.5 
0.5 0.5 0.5 0.5 0.5 0.5 0.5 0.5 0.5 
0.5 0.5 0.5 0.5 0.5 0.5 0.5 0.5 0.5 
0.5 0.5 0.5 0.5 0.5 0.5 0.5 0.5 0.5 
0.5 0.5 0.5 0.5 0.5 0.5 0.5 0.5 0.5 
0.5 0.5 0.5 0.5 0.5 0.5 0.5 0.5 0.5 
0.5 0.5 0.5 0.5 0.5 0.5 0.5 0.5 0.5 
0.5 0.5 0.5 0.5 0.5 0.5 0.5 0.5 0.5 
0.5 0.5 0.5 0.5 0.5 0.5 0.5 0.5 0.5 
0.5 0.5 0.5 0.5 0.5 0.5 0.5 0.5 0.5 
0.5 0.5 0.5 0.5 0.5 0.5 0.5 0.5 0.5 
0.5 0.5 0.5 0.5 0.5 0.5 0.5 0.5 0.5 
0.5 0.5 0.5 0.5 0.5 0.5 0.5 0.5 0.5 
0.5 0.5 0.5 0.5 0.5 0.5 0.5 0.5 0.5 
0.5 0.5 0.5 0.5 0.5 0.5 0.5 0.5 0.5 
0.5 0.5 0.5 0.5 0.5 0.5 0.5 0.5 0.5 
0.5 0.5 0.5 0.5 0.5 0.5 0.5 0.5 0.5 
0.5 0.5 0.5 0.5 0.5 0.5 0.5 0.5 0.5 
0.5 0.5 0.5 0.5 0.5 0.5 0.5 0.5 0.5 
0.5 0.5 0.5 0.5 0.5 0.5 0.5 0.5 0.5 
0.5 0.5 0.5 0.5 0.5 0.5 0.5 0.5 0.5 
0.5 0.5 0.5 0.5 0.5 0.5 0.5 0.5 0.5 
0.5 0.5 0.5 0.5 0.5 0.5 0.5 0.5 0.5 
0.5 0.5 0.5 0.5 0.5 0.5 0.5 0.5 0.5 
0.5 0.5 0.5 0.5 0.5 0.5 0.5 0.5 0.5 
0.5 0.5 0.5 0.5 0.5 0.5 0.5 0.5 0.5 
0.5 0.5 0.5 0.5 0.5 0.5 0.5 0.5 0.5 
0.5 0.5 0.5 0.5 0.5 0.5 0.5 0.5 0.5 
0.5 0.5 0.5 0.5 0.5 0.5 0.5 0.5 0.5 
0.5 0.5 0.5 0.5 0.5 0.5 0.5 0.5 0.5 
0.5 0.5 0.5 0.5 0.5 0.5 0.5 0.5 0.5 
0.5 0.5 0.5 0.5 0.5 0.5 0.5 0.5 0.5 
0.5 0.5 0.5 0.5 0.5 0.5 0.5 0.5 0.5 
0.5 0.5 0.5 0.5 0.5 0.5 0.5 0.5 0.5 
0.5 0.5 0.5 0.5 0.5 0.5 0.5 0.5 0.5 
0.5 0.5 0.5 0.5 0.5 0.5 0.5 0.5 0.5 
0.5 0.5 0.5 0.5 0.5 0.5 0.5 0.5 0.5 
0.5 0.5 0.5 0.5 0.5 0.5 0.5 0.5 0.5 
0.5 0.5 0.5 0.5 0.5 0.5 0.5 0.5 0.5 
0.5 0.5 0.5 0.5 0.5 0.5 0.5 0.5 0.5 
0.5 0.5 0.5 0.5 0.5 0.5 0.5 0.5 0.5 
0.5 0.5 0.5 0.5 0.5 0.5 0.5 0.5 0.5 
0.5 0.5 0.5 0.5 0.5 0.5 0.5 0.5 0.5 
0.5 0.5 0.5 0.5 0.5 0.5 0.5 0.5 0.5 
0.5 0.5 0.5 0.5 0.5 0.5 0.5 0.5 0.5 
0.5 0.5 0.5 0.5 0.5 0.5 0.5 0.5 0.5 
0.5 0.5 0.5 0.5 0.5 0.5 0.5 0.5 0.5 
0.5 0.5 0.5 0.5 0.5 0.5 0.5 0.5 0.5 
0.5 0.5 0.5 0.5 0.5 0.5 0.5 0.5 0.5 
0.5 0.5 0.5 0.5 0.5 0.5 0.5 0.5 0.5 
0.5 0.5 0.5 0.5 0.5 0.5 0.5 0.5 0.5 
0.5 0.5 0.5 0.5 0.5 0.5 0.5 0.5 0.5 
0.5 0.5 0.5 0.5 0.5 0.5 0.5 0.5 0.5 
0.5 0.5 0.5 0.5 0.5 0.5 0.5 0.5 0.5 
0.5 0.5 0.5 0.5 0.5 0.5 0.5 0.5 0.5 
0.5 0.5 0.5 0.5 0.5 0.5 0.5 0.5 0.5 
0.5 0.5 0.5 0.5 0.5 0.5 0.5 0.5 0.5 
0.5 0.5 0.5 0.5 0.5 0.5 0.5 0.5 0.5 
0.5 0.5 0.5 0.5 0.5 0.5 0.5 0.5 0.5 
0.5 0.5 0.5 0.5 0.5 0.5 0.5 0.5 0.5 
0.5 0.5 0.5 0.5 0.5 0.5 0.5 0.5 0.5 
0.5 0.5 0.5 0.5 0.5 0.5 0.5 0.5 0.5 
0.5 0.5 0.5 0.5 0.5 0.5 0.5 0.5 0.5 
0.5 0.5 0.5 0.5 0.5 0.5 0.5 0.5 0.5 
0.5 0.5 0.5 0.5 0.5 0.5 0.5 0.5 0.5 
0.5 0.5 0.5 0.5 0.5 0.5 0.5 0.5 0.5 
0.5 0.5 0.5 0.5 0.5 0.5 0.5 0.5 0.5 
0.5 0.5 0.5 0.5 0.5 0.5 0.5 0.5 0.5 
0.5 0.5 0.5 0.5 0.5 0.5 0.5 0.5 0.5 
0.5 0.5 0.5 0.5 0.5 0.5 0.5 0.5 0.5 
0.5 0.5 0.5 0.5 0.5 0.5 0.5 0.5 0.5 
0.5 0.5 0.5 0.5 0.5 0.5 0.5 0.5 0.5 
0.5 0.5 0.5 0.5 0.5 0.5 0.5 0.5 0.5 
0.5 0.5 0.5 0.5 0.5 0.5 0.5 0.5 0.5 
0.5 0.5 0.5 0.5 0.5 0.5 0.5 0.5 0.5 
0.5 0.5 0.5 0.5 0.5 0.5 0.5 0.5 0.5 
0.5 0.5 0.5 0.5 0.5 0.5 0.5 0.5 0.5 
0.5 0.5 0.5 0.5 0.5 0.5 0.5 0.5 0.5 
0.5 0.5 0.5 0.5 0.5 0.5 0.5 0.5 0.5 
0.5 0.5 0.5 0.5 0.5 0.5 0.5 0.5 0.5 
0.5 0.5 0.5 0.5 0.5 0.5 0.5 0.5 0.5 
0.5 0.5 0.5 0.5 0.5 0.5 0.5 0.5 0.5 
0.5 0.5 0.5 0.5 0.5 0.5 0.5 0.5 0.5 
0.5 0.5 0.5 0.5 0.5 0.5 0.5 0.5 0.5 
0.5 0.5 0.5 0.5 0.5 0.5 0.5 0.5 0.5 
0.5 0.5 0.5 0.5 0.5 0.5 0.5 0.5 0.5 
0.5 0.5 0.5 0.5 0.5 0.5 0.5 0.5 0.5 
0.5 0.5 0.5 0.5 0.5 0.5 0.5 0.5 0.5 
0.5 0.5 0.5 0.5 0.5 0.5 0.5 0.5 0.5 
0.5 0.5 0.5 0.5 0.5 0.5 0.5 0.5 0.5 
0.5 0.5 0.5 0.5 0.5 0.5 0.5 0.5 0.5 
0.5 0.5 0.5 0.5 0.5 0.5 0.5 0.5 0.5 
0.5 0.5 0.5 0.5 0.5 0.5 0.5 0.5 0.5 
0.5 0.5 0.5 0.5 0.5 0.5 0.5 0.5 0.5 
0.5 0.5 0.5 0.5 0.5 0.5 0.5 0.5 0.5 
0.5 0.5 0.5 0.5 0.5 0.5 0.5 0.5 0.5 
0.5 0.5 0.5 0.5 0.5 0.5 0.5 0.5 0.5 
0.5 0.5 0.5 0.5 0.5 0.5 0.5 0.5 0.5 
0.5 0.5 0.5 0.5 0.5 0.5 0.5 0.5 0.5 
0.5 0.5 0.5 0.5 0.5 0.5 0.5 0.5 0.5 
0.5 0.5 0.5 0.5 0.5 0.5 0.5 0.5 0.5 
0.5 0.5 0.5 0.5 0.5 0.5 0.5 0.5 0.5 
0.5 0.5 0.5 0.5 0.5 0.5 0.5 0.5 0.5 
0.5 0.5 0.5 0.5 0.5 0.5 0.5 0.5 0.5 
0.5 0.5 0.5 0.5 0.5 0.5 0.5 0.5 0.5 
0.5 0.5 0.5 0.5 0.5 0.5 0.5 0.5 0.5 
0.5 0.5 0.5 0.5 0.5 0.5 0.5 0.5 0.5 
0.5 0.5 0.5 0.5 0.5 0.5 0.5 0.5 0.5 
0.5 0.5 0.5 0.5 0.5 0.5 0.5 0.5 0.5 
0.5 0.5 0.5 0.5 0.5 0.5 0.5 0.5 0.5 
0.5 0.5 0.5 0.5 0.5 0.5 0.5 0.5 0.5 
0.5 0.5 0.5 0.5 0.5 0.5 0.5 0.5 0.5 
0.5 0.5 0.5 0.5 0.5 0.5 0.5 0.5 0.5 
0.5 0.5 0.5 0.5 0.5 0.5 0.5 0.5 0.5 
0.5 0.5 0.5 0.5 0.5 0.5 0.5 0.5 0.5 
0.5 0.5 0.5 0.5 0.5 0.5 0.5 0.5 0.5 
0.5 0.5 0.5 0.5 0.5 0.5 0.5 0.5 0.5 
0.5 0.5 0.5 0.5 0.5 0.5 0.5 0.5 0.5 
0.5 0.5 0.5 0.5 0.5 0.5 0.5 0.5 0.5 
0.5 0.5 0.5 0.5 0.5 0.5 0.5 0.5 0.5 
0.5 0.5 0.5 0.5 0.5 0.5 0.5 0.5 0.5 
0.5 0.5 0.5 0.5 0.5 0.5 0.5 0.5 0.5 
0.5 0.5 0.5 0.5 0.5 0.5 0.5 0.5 0.5 
0.5 0.5 0.5 0.5 0.5 0.5 0.5 0.5 0.5 
0.5 0.5 0.5 0.5 0.5 0.5 0.5 0.5 0.5 
0.5 0.5 0.5 0.5 0.5 0.5 0.5 0.5 0.5 
0.5 0.5 0.5 0.5 0.5 0.5 0.5 0.5 0.5 
0.5 0.5 0.5 0.5 0.5 0.5 0.5 0.5 0.5 
0.5 0.5 0.5 0.5 0.5 0.5 0.5 0.5 0.5 
0.5 0.5 0.5 0.5 0.5 0.5 0.5 0.5 0.5 
0.5 0.5 0.5 0.5 0.5 0.5 0.5 0.5 0.5 
0.5 0.5 0.5 0.5 0.5 0.5 0.5 0.5 0.5 
0.5 0.5 0.5 0.5 0.5 0.5 0.5 0.5 0.5 
0.5 0.5 0.5 0.5 0.5 0.5 0.5 0.5 0.5 
0.5 0.5 0.5 0.5 0.5 0.5 0.5 0.5 0.5 
0.5 0.5 0.5 0.5 0.5 0.5 0.5 0.5 0.5 
0.5 0.5 0.5 0.5 0.5 0.5 0.5 0.5 0.5 
0.5 0.5 0.5 0.5 0.5 0.5 0.5 0.5 0.5 
0.5 0.5 0.5 0.5 0.5 0.5 0.5 0.5 0.5 
0.5 0.5 0.5 0.5 0.5 0.5 0.5 0.5 0.5 
0.5 0.5 0.5 0.5 0.5 0.5 0.5 0.5 0.5 
0.5 0.5 0.5 0.5 0.5 0.5 0.5 0.5 0.5 
0.5 0.5 0.5 0.5 0.5 0.5 0.5 0.5 0.5 
0.5 0.5 0.5 0.5 0.5 0.5 0.5 0.5 0.5 
0.5 0.5 0.5 0.5 0.5 0.5 0.5 0.5 0.5 
0.5 0.5 0.5 0.5 0.5 0.5 0.5 0.5 0.5 
0.5 0.5 0.5 0.5 0.5 0.5 0.5 0.5 0.5 
0.5 0.5 0.5 0.5 0.5 0.5 0.5 0.5 0.5 
0.5 0.5 0.5 0.5 0.5 0.5 0.5 0.5 0.5 
0.5 0.5 0.5 0.5 0.5 0.5 0.5 0.5 0.5 
0.5 0.5 0.5 0.5 0.5 0.5 0.5 0.5 0.5 
0.5 0.5 0.5 0.5 0.5 0.5 0.5 0.5 0.5 
0.5 0.5 0.5 0.5 0.5 0.5 0.5 0.5 0.5 
0.5 0.5 0.5 0.5 0.5 0.5 0.5 0.5 0.5 
0.5 0.5 0.5 0.5 0.5 0.5 0.5 0.5 0.5 
0.5 0.5 0.5 0.5 0.5 0.5 0.5 0.5 0.5 
0.5 0.5 0.5 0.5 0.5 0.5 0.5 0.5 0.5 
0.5 0.5 0.5 0.5 0.5 0.5 0.5 0.5 0.5 
0.5 0.5 0.5 0.5 0.5 0.5 0.5 0.5 0.5 
0.5 0.5 0.5 0.5 0.5 0.5 0.5 0.5 0.5 
0.5 0.5 0.5 0.5 0.5 0.5 0.5 0.5 0.5 
0.5 0.5 0.5 0.5 0.5 0.5 0.5 0.5 0.5 
0.5 0.5 0.5 0.5 0.5 0.5 0.5 0.5 0.5 
0.5 0.5 0.5 0.5 0.5 0.5 0.5 0.5 0.5 
0.5 0.5 0.5 0.5 0.5 0.5 0.5 0.5 0.5 
0.5 0.5 0.5 0.5 0.5 0.5 0.5 0.5 0.5 
0.5 0.5 0.5 0.5 0.5 0.5 0.5 0.5 
POINT_DATA 2166
NORMALS Normals float
0.57735 0.57735 -0.57735 0.57735 0.57735 -0.57735 0.57735 0.57735 -0.57735 
0 0.707107 -0.707107 0 0.707107 -0.707107 0 0.707107 -0.707107 
0 0.707107 -0.707107 0 0.707107 -0.707107 0 0.707107 -0.707107 
0 0.707107 -0.707107 0 0.707107 -0.707107 -0.57735 0.57735 -0.57735 
0.57735 0.57735 -0.57735 0.57735 0.57735 -0.57735 0.57735 0.57735 -0.57735 
0 0 -1 0 0 -1 0 0 -1 
0 0 -1 0 0 -1 -0.57735 0.57735 -0.57735 
-0.57735 0.57735 -0.57735 -0.57735 0.57735 -0.57735 0.707107 0 -0.707107 
0.707107 0 -0.707107 0 0 -1 0 0 -1 
0 0 -1 0 0 -1 0 0 -1 
0 0 -1 -0.707107 0 -0.707107 0.707107 0 -0.707107 
0.707107 0 -0.707107 0 0 -1 0 0 -1 
0 0 -1 0 0 -1 0 0 -1 
0 0 -1 -0.707107 0 -0.707107 0.707107 0 -0.707107 
0.707107 0 -0.707107 0 0 -1 0 0 -1 
0 0 -1 0 0 -1 0 0 -1 
0 0 -1 -0.707107 0 -0.707107 0.707107 0 -0.707107 
0.707107 0 -0.707107 0 0 -1 0 0 -1 
0 0 -1 0 0 -1 0 0 -1 
0 0 -1 -0.707107 0 -0.707107 0.57735 -0.57735 -0.57735 
0.57735 -0.57735 -0.57735 0.57735 -0.57735 -0.57735 0 0 -1 
0 0 -1 0 0 -1 0 0 -1 
-0.57735 -0.57735 -0.57735 -0.57735 -0.57735 -0.57735 0.57735 -0.57735 -0.57735 
0 -0.707107 -0.707107 0 -0.707107 -0.707107 0 -0.707107 -0.707107 
0 -0.707107 -0.707107 0.57735 0.57735 -0.57735 0.57735 0.57735 -0.57735 
0.57735 0.57735 -0.57735 0 0.707107 -0.707107 0 0.707107 -0.707107 
0 0.707107 -0.707107 0 0.707107 -0.707107 -0.57735 0.57735 -0.57735 
0.57735 0.57735 -0.57735 0.57735 0.57735 -0.57735 0.57735 0.57735 -0.57735 
0 0.707107 -0.707107 0 0.707107 -0.707107 0 0 -1 
0 0 -1 0 0 -1 -0.57735 0.57735 -0.57735 
-0.57735 0.57735 -0.57735 0 0.707107 -0.707107 0 0.707107 -0.707107 
-0.57735 0.57735 -0.57735 0.57735 0.57735 -0.57735 0.57735 0.57735 -0.57735 
0.57735 0.57735 -0.57735 0 0 -1 -0.57735 0.57735 -0.57735 
-0.57735 0.57735 -0.57735 -0.57735 0.57735 -0.57735 -0.57735 0.57735 -0.57735 
0.707107 0 -0.707107 0.707107 0 -0.707107 -0.57735 0.57735 -0.57735 
-0.707107 0 -0.707107 0.57735 0.57735 -0.57735 0.57735 0.57735 -0.57735 
0.57735 0.57735 -0.57735 0 0 -1 -0.707107 0 -0.707107 
-0.57735 0.57735 -0.57735 -0.57735 0.57735 -0.57735 -0.57735 0.57735 -0.57735 
0.707107 0 -0.707107 0.707107 0 -0.707107 0 0 -1 
-0.707107 0 -0.707107 0 0 -1 -0.707107 0 -0.707107 
0.707107 0 -0.707107 0.707107 0 -0.707107 0 0 -1 
-0.707107 0 -0.707107 0 0 -1 -0.707107 0 -0.707107 
0.57735 -0.57735 -0.57735 0.57735 -0.57735 -0.57735 0.57735 -0.57735 -0.57735 
-0.707107 0 -0.707107 -0.57735 -0.57735 -0.57735 -0.57735 -0.57735 -0.57735 
0.707107 0 -0.707107 0.707107 0 -0.707107 0.57735 -0.57735 -0.57735 
-0.57735 -0.57735 -0.57735 0 0 -1 -0.707107 0 -0.707107 
0.57735 -0.57735 -0.57735 0.57735 -0.57735 -0.57735 0.57735 -0.57735 -0.57735 
0.57735 -0.57735 -0.57735 0 -0.707107 -0.707107 0 -0.707107 -0.707107 
0 -0.707107 -0.707107 0 -0.707107 -0.707107 0 0 -1 
-0.57735 -0.57735 -0.57735 -0.57735 -0.57735 -0.57735 0.57735 -0.57735 -0.57735 
0 -0.707107 -0.707107 0.57735 -0.57735 -0.57735 0.57735 -0.57735 -0.57735 
0 0 -1 0 0 -1 -0.57735 -0.57735 -0.57735 
-0.57735 -0.57735 -0.57735 0 -0.707107 -0.707107 0.57735 -0.57735 -0.57735 
0 -0.707107 -0.707107 0 -0.707107 -0.707107 0.57735 0.57735 -0.57735 
0.57735 0.57735 -0.57735 0.57735 0.57735 -0.57735 0 0.707107 -0.707107 
0 0.707107 -0.707107 0 0.707107 -0.707107 0 0.707107 -0.707107 
-0.57735 0.57735 -0.57735 0.57735 0.57735 -0.57735 0.57735 0.57735 -0.57735 
0.57735 0.57735 -0.57735 0 0.707107 -0.707107 0 0.707107 -0.707107 
-0.57735 0.57735 -0.57735 -0.57735 0.57735 -0.57735 0 0.707107 -0.707107 
0 0.707107 -0.707107 -0.57735 0.57735 -0.57735 0.57735 0.57735 -0.57735 
0.57735 0.57735 -0.57735 0.57735 0.57735 -0.57735 -0.57735 0.57735 -0.57735 
-0.57735 0.57735 -0.57735 -0.57735 0.57735 -0.57735 0.57735 0.57735 -0.57735 
0.57735 0.57735 -0.57735 0.57735 0.57735 -0.57735 -0.57735 0.57735 -0.57735 
-0.57735 0.57735 -0.57735 -0.57735 0.57735 -0.57735 0.707107 0 -0.707107 
0.707107 0 -0.707107 -0.707107 0 -0.707107 -0.707107 0 -0.707107 
0.57735 0.57735 -0.57735 0.57735 0.57735 -0.57735 0.57735 0.57735 -0.57735 
-0.57735 0.57735 -0.57735 -0.57735 0.57735 -0.57735 -0.57735 0.57735 -0.57735 
0.707107 0 -0.707107 0.707107 0 -0.707107 -0.707107 0 -0.707107 
-0.707107 0 -0.707107 0.707107 0 -0.707107 0.707107 0 -0.707107 
-0.707107 0 -0.707107 -0.707107 0 -0.707107 0.57735 -0.57735 -0.57735 
0.57735 -0.57735 -0.57735 0.57735 -0.57735 -0.57735 -0.57735 -0.57735 -0.57735 
-0.57735 -0.57735 -0.57735 -0.57735 -0.57735 -0.57735 0.707107 0 -0.707107 
0.707107 0 -0.707107 -0.707107 0 -0.707107 -0.707107 0 -0.707107 
0.57735 -0.57735 -0.57735 0.57735 -0.57735 -0.57735 0.57735 -0.57735 -0.57735 
-0.57735 -0.57735 -0.57735 -0.57735 -0.57735 -0.57735 -0.57735 -0.57735 -0.57735 
0.57735 -0.57735 -0.57735 0.57735 -0.57735 -0.57735 0.57735 -0.57735 -0.57735 
0 -0.707107 -0.707107 -0.57735 -0.57735 -0.57735 0 -0.707107 -0.707107 
-0.57735 -0.57735 -0.57735 -0.57735 -0.57735 -0.57735 0.57735 -0.57735 -0.57735 
0 -0.707107 -0.707107 0.57735 -0.57735 -0.57735 0.57735 -0.57735 -0.57735 
0 -0.707107 -0.707107 0 -0.707107 -0.707107 -0.57735 -0.57735 -0.57735 
-0.57735 -0.57735 -0.57735 0 -0.707107 -0.707107 0.57735 -0.57735 -0.57735 
0 -0.707107 -0.707107 0 -0.707107 -0.707107 0.57735 0.57735 -0.57735 
0.57735 0.57735 -0.57735 0.57735 0.57735 -0.57735 0 0.707107 -0.707107 
0 0.707107 -0.707107 0 1 0 0 1 0 
0 1 0 -0.57735 0.57735 -0.57735 -0.57735 0.57735 -0.57735 
0 0.707107 -0.707107 0 0.707107 -0.707107 -0.57735 0.57735 -0.57735 
0.57735 0.57735 -0.57735 0.57735 0.57735 -0.57735 0.57735 0.57735 -0.57735 
-0.57735 0.57735 -0.57735 -0.57735 0.57735 -0.57735 -0.57735 0.57735 -0.57735 
0.57735 0.57735 -0.57735 0.57735 0.57735 -0.57735 0.57735 0.57735 -0.57735 
-0.57735 0.57735 -0.57735 -0.57735 0.57735 -0.57735 -0.57735 0.57735 -0.57735 
0.57735 0.57735 -0.57735 0.57735 0.57735 -0.57735 0.57735 0.57735 -0.57735 
-0.57735 0.57735 -0.57735 -0.57735 0.57735 -0.57735 -0.57735 0.57735 -0.57735 
0.707107 0 -0.707107 0.707107 0 -0.707107 -0.707107 0 -0.707107 
-0.707107 0 -0.707107 1 0 0 -1 0 0 
1 0 0 -1 0 0 1 0 0 
-1 0 0 0.57735 -0.57735 -0.57735 0.57735 -0.57735 -0.57735 
-0.57735 -0.57735 -0.57735 -0.57735 -0.57735 -0.57735 0.707107 0 -0.707107 
0.707107 0 -0.707107 -0.707107 0 -0.707107 -0.707107 0 -0.707107 
0.57735 -0.57735 -0.57735 0.57735 -0.57735 -0.57735 0.57735 -0.57735 -0.57735 
-0.57735 -0.57735 -0.57735 -0.57735 -0.57735 -0.57735 -0.57735 -0.57735 -0.57735 
0.57735 -0.57735 -0.57735 0.57735 -0.57735 -0.57735 0.57735 -0.57735 -0.57735 
-0.57735 -0.57735 -0.57735 -0.57735 -0.57735 -0.57735 -0.57735 -0.57735 -0.57735 
0.57735 -0.57735 -0.57735 0.57735 -0.57735 -0.57735 0.57735 -0.57735 -0.57735 
0 -0.707107 -0.707107 -0.57735 -0.57735 -0.57735 0 -0.707107 -0.707107 
-0.57735 -0.57735 -0.57735 -0.57735 -0.57735 -0.57735 0.57735 -0.57735 -0.57735 
0 -0.707107 -0.707107 0 -1 0 0 -1 0 
0 -1 0 -0.57735 -0.57735 -0.57735 0 -0.707107 -0.707107 
0.57735 0.57735 -0.57735 0.57735 0.57735 -0.57735 0.57735 0.57735 -0.57735 
0 0.707107 -0.707107 0 0.707107 -0.707107 0 0.707107 -0.707107 
0 0.707107 -0.707107 0 0.707107 -0.707107 0 0.707107 -0.707107 
0 0.707107 -0.707107 0 0.707107 -0.707107 -0.57735 0.57735 -0.57735 
0.57735 0.57735 -0.57735 0.57735 0.57735 -0.57735 0.57735 0.57735 -0.57735 
0 1 0 -0.57735 0.57735 -0.57735 -0.57735 0.57735 -0.57735 
-0.57735 0.57735 -0.57735 -0.57735 0.57735 -0.57735 0.57735 0.57735 -0.57735 
0.57735 0.57735 -0.57735 0.57735 0.57735 -0.57735 -0.57735 0.57735 -0.57735 
-0.57735 0.57735 -0.57735 -0.57735 0.57735 -0.57735 0.57735 0.57735 -0.57735 
0.57735 0.57735 -0.57735 0.57735 0.57735 -0.57735 -0.57735 0.57735 -0.57735 
-0.57735 0.57735 -0.57735 -0.57735 0.57735 -0.57735 1 0 0 
-1 0 0 0.57735 0.57735 -0.57735 0.57735 0.57735 -0.57735 
0.57735 0.57735 -0.57735 -0.57735 0.57735 -0.57735 -0.57735 0.57735 -0.57735 
-0.57735 0.57735 -0.57735 0.707107 0 -0.707107 0.707107 0 -0.707107 
-0.707107 0 -0.707107 -0.707107 0 -0.707107 0.707107 0 -0.707107 
0.707107 0 -0.707107 -0.707107 0 -0.707107 -0.707107 0 -0.707107 
0.707107 0 -0.707107 0.707107 0 -0.707107 -0.707107 0 -0.707107 
-0.707107 0 -0.707107 0.707107 0 -0.707107 0.707107 0 -0.707107 
-0.707107 0 -0.707107 -0.707107 0 -0.707107 0.57735 -0.57735 -0.57735 
0.57735 -0.57735 -0.57735 -0.57735 -0.57735 -0.57735 -0.57735 -0.57735 -0.57735 
0.57735 -0.57735 -0.57735 0.57735 -0.57735 -0.57735 -0.57735 -0.57735 -0.57735 
-0.57735 -0.57735 -0.57735 0.57735 -0.57735 -0.57735 0.57735 -0.57735 -0.57735 
0.57735 -0.57735 -0.57735 -0.57735 -0.57735 -0.57735 -0.57735 -0.57735 -0.57735 
-0.57735 -0.57735 -0.57735 0.57735 -0.57735 -0.57735 0.57735 -0.57735 -0.57735 
0.57735 -0.57735 -0.57735 -0.57735 -0.57735 -0.57735 -0.57735 -0.57735 -0.57735 
-0.57735 -0.57735 -0.57735 0.57735 -0.57735 -0.57735 0 -1 0 
0.57735 -0.57735 -0.57735 0.57735 -0.57735 -0.57735 0 -0.707107 -0.707107 
0 -0.707107 -0.707107 0 -0.707107 -0.707107 0 -0.707107 -0.707107 
-0.57735 -0.57735 -0.57735 -0.57735 -0.57735 -0.57735 -0.57735 -0.57735 -0.57735 
0.57735 -0.57735 -0.57735 0 -0.707107 -0.707107 0 -0.707107 -0.707107 
0 -0.707107 -0.707107 0 -0.707107 -0.707107 0.57735 0.57735 -0.57735 
0.57735 0.57735 -0.57735 0.57735 0.57735 -0.57735 0 1 0 
0 1 0 0 1 0 0 1 0 
0 1 0 -0.57735 0.57735 -0.57735 -0.57735 0.57735 -0.57735 
-0.57735 0.57735 -0.57735 0.707107 0.707107 0 0.707107 0.707107 0 
-0.57735 0.57735 -0.57735 -0.707107 0.707107 0 0.707107 0.707107 0 
0.707107 0.707107 0 -0.707107 0.707107 0 -0.707107 0.707107 0 
0.707107 0.707107 0 0.707107 0.707107 0 -0.707107 0.707107 0 
-0.707107 0.707107 0 0.57735 0.57735 -0.57735 0.57735 0.57735 -0.57735 
0.57735 0.57735 -0.57735 -0.57735 0.57735 -0.57735 -0.57735 0.57735 -0.57735 
-0.57735 0.57735 -0.57735 1 0 0 -1 0 0 
1 0 0 -1 0 0 1 0 0 
-1 0 0 1 0 0 -1 0 0 
1 0 0 -1 0 0 0.57735 -0.57735 -0.57735 
0.57735 -0.57735 -0.57735 -0.57735 -0.57735 -0.57735 -0.57735 -0.57735 -0.57735 
0.57735 -0.57735 -0.57735 0.57735 -0.57735 -0.57735 -0.57735 -0.57735 -0.57735 
-0.57735 -0.57735 -0.57735 0.707107 -0.707107 0 0.707107 -0.707107 0 
-0.707107 -0.707107 0 -0.707107 -0.707107 0 0.707107 -0.707107 0 
0.707107 -0.707107 0 -0.707107 -0.707107 0 -0.707107 -0.707107 0 
0.707107 -0.707107 0 0.57735 -0.57735 -0.57735 0.57735 -0.57735 -0.57735 
-0.57735 -0.57735 -0.57735 -0.57735 -0.57735 -0.57735 -0.57735 -0.57735 -0.57735 
0.57735 -0.57735 -0.57735 0 -1 0 0 -1 0 
0 -1 0 0 -1 0 0 -1 0 
-0.57735 -0.57735 -0.57735 0.707107 0.707107 0 0.707107 0.707107 0 